{"description":"Terbium is a rare-earth metal valued for its bright green phosphors and magnetostrictive materials. It appears in energy-efficient lighting, display panels, and advanced sensors. Terbium alloys change shape under magnetic fields, making them useful for precise actuators. Though scarce, terbium’s unique optical and mechanical traits support cutting-edge technologies.","name":"Terbium","symbol":"Tb","atomicNumber":"65","period":"6","group":"— (Lanthanide)","atomicMass":"158.93 g/mol","electronConfiguration":"[Xe] 4f⁹ 6s²","energyLevels":[2,8,18,27,8,2],"densityRT":"8.23 g/cm³","densityLiquidAtMP":"—","meltingPointC":"1 356 °C","boilingPointC":"3 230 °C","molarHeatCapacity":"28.91 J/(mol·K)","molarVolume":"19.31 cm³/mol"}