{"description":"Cerium is the most abundant rare-earth element and is widely used in catalysts, glass polishing, and alloys. It helps refine petroleum, remove impurities, and improve fuel efficiency. Cerium oxide polishes glass surfaces with exceptional precision. Despite its reactive nature, cerium remains a key component in automotive, optical, and industrial processes.","name":"Cerium","symbol":"Ce","atomicNumber":"58","period":"6","group":"— (Lanthanide)","atomicMass":"140.12 g/mol","electronConfiguration":"[Xe] 4f¹ 5d¹ 6s²","energyLevels":[2,8,18,19,9,2],"densityRT":"6.77 g/cm³","densityLiquidAtMP":"—","meltingPointC":"798 °C","boilingPointC":"3 443 °C","molarHeatCapacity":"26.94 J/(mol·K)","molarVolume":"20.67 cm³/mol"}