{"description":"Magnesium is a lightweight, silvery metal important for both biological and industrial systems. It burns with a bright white flame and forms strong, lightweight alloys used in automotive and aerospace engineering. In living organisms, magnesium plays a key role in enzyme function and photosynthesis. Industry uses it in metal refining, electronics, and construction. Magnesium’s combination of strength, lightness, and biological significance makes it a versatile and highly valued element.","name":"Magnesium","symbol":"Mg","atomicNumber":"12","period":"3","group":"2","atomicMass":"24.305 g/mol","electronConfiguration":"[Ne] 3s²","energyLevels":[2,8,2],"densityRT":"1.738 g/cm³","densityLiquidAtMP":"1.584 g/cm³","meltingPointC":"650 °C","boilingPointC":"1 091 °C","molarHeatCapacity":"24.9 J/(mol·K)","molarVolume":"14.0 cm³/mol"}