{"description":"Lanthanum is a rare-earth metal used in camera lenses, batteries, and catalysts. Its optical properties improve lens clarity and reduce distortion. Lanthanum-based materials also appear in hybrid-vehicle batteries and petroleum refining. Though relatively soft and reactive, lanthanum’s versatility ensures its importance in modern technology and clean-energy development.","name":"Lanthanum","symbol":"La","atomicNumber":"57","period":"6","group":"— (Lanthanide)","atomicMass":"138.91 g/mol","electronConfiguration":"[Xe] 5d¹ 6s²","energyLevels":[2,8,18,18,9,2],"densityRT":"6.15 g/cm³","densityLiquidAtMP":"—","meltingPointC":"920 °C","boilingPointC":"3 464 °C","molarHeatCapacity":"27.11 J/(mol·K)","molarVolume":"22.39 cm³/mol"}