{"description":"Silicon is a metalloid central to modern technology. It forms the basis of most semiconductors, enabling computers, smartphones, and solar panels. Silicon is also a major component of sand, glass, and ceramics. Its ability to form stable networks makes it ideal for materials science and electronics. Although not found as a pure element in nature, its compounds are abundant. Silicon’s role in technology continues to expand as demand for efficient electronics and renewable energy grows.","name":"Silicon","symbol":"Si","atomicNumber":"14","period":"3","group":"14","atomicMass":"28.085 g/mol","electronConfiguration":"[Ne] 3s² 3p²","energyLevels":[2,8,4],"densityRT":"2.3296 g/cm³","densityLiquidAtMP":"2.52 g/cm³","meltingPointC":"1 414 °C","boilingPointC":"3 265 °C","molarHeatCapacity":"19.8 J/(mol·K)","molarVolume":"12.1 cm³/mol"}