{"description":"Barium is a soft, reactive metal used in drilling fluids, fireworks, and medical imaging. Barium compounds produce bright green flames and enhance contrast in gastrointestinal X-rays. Because pure barium is highly reactive, it is usually handled as a compound. Barium’s distinctive properties support applications in industry, medicine, and pyrotechnics.","name":"Barium","symbol":"Ba","atomicNumber":"56","period":"6","group":"2","atomicMass":"137.33 g/mol","electronConfiguration":"[Xe] 6s²","energyLevels":[2,8,18,18,8,2],"densityRT":"3.62 g/cm³","densityLiquidAtMP":"—","meltingPointC":"727 °C","boilingPointC":"1 870 °C","molarHeatCapacity":"28.07 J/(mol·K)","molarVolume":"39.24 cm³/mol"}