{"description":"Ytterbium is a soft rare-earth metal used in lasers, sensors, and alloy strengthening. Its compounds help stabilize stainless steel and support precision measurement devices. Ytterbium-based lasers offer high efficiency and are used in materials processing and scientific research. While not as widely known as some rare-earth elements, ytterbium remains important for specialized, high-tech applications.","name":"Ytterbium","symbol":"Yb","atomicNumber":"70","period":"6","group":"— (Lanthanide)","atomicMass":"173.05 g/mol","electronConfiguration":"[Xe] 4f¹⁴ 6s²","energyLevels":[2,8,18,32,8,2],"densityRT":"6.97 g/cm³","densityLiquidAtMP":"—","meltingPointC":"824 °C","boilingPointC":"1 196 °C","molarHeatCapacity":"26.74 J/(mol·K)","molarVolume":"24.84 cm³/mol"}