{"description":"Silver is a highly conductive metal used in electronics, jewelry, photography, and renewable-energy systems. Its excellent electrical and thermal properties make it ideal for circuit boards and advanced technologies. Silver also has antimicrobial qualities, supporting medical and sanitary applications. Though it tarnishes in air, this does not diminish its usefulness. Its blend of beauty, performance, and versatility secures silver a lasting role in industry and culture.","name":"Silver","symbol":"Ag","atomicNumber":"47","period":"5","group":"11","atomicMass":"107.8682 g/mol","electronConfiguration":"[Kr] 4d¹⁰ 5s¹","energyLevels":[2,8,18,18,1],"densityRT":"10.49 g/cm³","densityLiquidAtMP":"9.32 g/cm³","meltingPointC":"961.78 °C","boilingPointC":"2 162 °C","molarHeatCapacity":"25.35 J/(mol·K)","molarVolume":"10.3 cm³/mol"}