{"description":"Osmium is a dense, hard metal with a bluish tint. It is used in durable alloys for fountain pen tips, electrodes, and specialized instruments. Osmium’s high density and hardness make it suitable for precision components. Some compounds can be toxic, so careful handling is required. Despite limited usage, osmium’s unique physical properties are valuable in specific technical applications.","name":"Osmium","symbol":"Os","atomicNumber":"76","period":"6","group":"8","atomicMass":"190.23 g/mol","electronConfiguration":"[Xe] 4f¹⁴ 5d⁶ 6s²","energyLevels":[2,8,18,32,14,2],"densityRT":"22.59 g/cm³","densityLiquidAtMP":"—","meltingPointC":"3 033 °C","boilingPointC":"5 027 °C","molarHeatCapacity":"24.70 J/(mol·K)","molarVolume":"8.43 cm³/mol"}