{"description":"Tellurium is a rare, brittle metalloid used in semiconductors, solar panels, and thermoelectric materials. Its compounds help convert heat into electrical energy, supporting renewable-energy technologies. Tellurium also strengthens certain metal alloys and contributes to advanced optical materials. Despite its scarcity, tellurium’s specialized electronic properties ensure ongoing interest in research and industry.","name":"Tellurium","symbol":"Te","atomicNumber":"52","period":"5","group":"16","atomicMass":"127.60 g/mol","electronConfiguration":"[Kr] 4d¹⁰ 5s² 5p⁴","energyLevels":[2,8,18,18,6],"densityRT":"6.24 g/cm³","densityLiquidAtMP":"—","meltingPointC":"449.51 °C","boilingPointC":"988 °C","molarHeatCapacity":"25.73 J/(mol·K)","molarVolume":"20.5 cm³/mol"}