{"description":"Holmium is a highly magnetic rare-earth metal used in lasers, scientific instruments, and nuclear control rods. It has a strong ability to absorb neutrons, making it valuable in reactor designs. Holmium-doped crystals support precise laser systems used in medical and industrial applications. Although not widely known, its specific properties fill important specialized roles.","name":"Holmium","symbol":"Ho","atomicNumber":"67","period":"6","group":"— (Lanthanide)","atomicMass":"164.93 g/mol","electronConfiguration":"[Xe] 4f¹¹ 6s²","energyLevels":[2,8,18,29,8,2],"densityRT":"8.79 g/cm³","densityLiquidAtMP":"—","meltingPointC":"1 474 °C","boilingPointC":"2 700 °C","molarHeatCapacity":"27.15 J/(mol·K)","molarVolume":"18.74 cm³/mol"}