{"description":"Rhodium is a highly reflective, corrosion-resistant metal often used to coat jewelry, mirrors, and optical instruments. It is also a critical catalyst in automotive emission-control systems, helping reduce harmful exhaust gases. Rhodium’s rarity and resistance to wear make it expensive, but its performance justifies its use in demanding industrial applications. Its bright finish and chemical stability keep it important across various industries.","name":"Rhodium","symbol":"Rh","atomicNumber":"45","period":"5","group":"9","atomicMass":"102.90550 g/mol","electronConfiguration":"[Kr] 4d⁸ 5s¹","energyLevels":[2,8,18,16,1],"densityRT":"12.41 g/cm³","densityLiquidAtMP":"—","meltingPointC":"1 964 °C","boilingPointC":"3 695 °C","molarHeatCapacity":"24.98 J/(mol·K)","molarVolume":"8.3 cm³/mol"}