{"description":"Thulium is one of the rarest rare-earth metals, used mainly in portable X-ray devices, lasers, and research materials. Thulium-based sources provide compact radiation for medical and industrial imaging. Although production volumes are low, its reliability in specialized applications maintains steady demand. Thulium’s scarcity and unique properties make it a valuable research element.","name":"Thulium","symbol":"Tm","atomicNumber":"69","period":"6","group":"— (Lanthanide)","atomicMass":"168.93 g/mol","electronConfiguration":"[Xe] 4f¹³ 6s²","energyLevels":[2,8,18,31,8,2],"densityRT":"9.32 g/cm³","densityLiquidAtMP":"—","meltingPointC":"1 545 °C","boilingPointC":"1 950 °C","molarHeatCapacity":"27.03 J/(mol·K)","molarVolume":"18.12 cm³/mol"}