{"description":"Iodine is a dark, lustrous solid that readily forms violet vapors. It is essential for human health, supporting thyroid function through hormone production. Medical applications include disinfectants, imaging agents, and antiseptics. In industry, iodine appears in catalysts, pharmaceuticals, and specialized materials. Its ability to bond with organic compounds makes it valuable in synthetic chemistry. Though not abundant, iodine is widely used in both health and technology.","name":"Iodine","symbol":"I","atomicNumber":"53","period":"5","group":"17","atomicMass":"126.90447 g/mol","electronConfiguration":"[Kr] 4d¹⁰ 5s² 5p⁵","energyLevels":[2,8,18,18,7],"densityRT":"4.93 g/cm³","densityLiquidAtMP":"4.93 g/cm³","meltingPointC":"113.7 °C","boilingPointC":"184.3 °C","molarHeatCapacity":"54.44 J/(mol·K)","molarVolume":"25.7 cm³/mol"}