{"description":"Strontium is a soft metal known for its bright red flame color and use in fireworks, magnets, and ceramics. Strontium compounds enhance glass for electronics and support medical imaging materials. Naturally occurring strontium is stable, though some isotopes require careful handling. Its visual and material properties give it a distinctive role in both entertainment and technology.","name":"Strontium","symbol":"Sr","atomicNumber":"38","period":"5","group":"2","atomicMass":"87.62 g/mol","electronConfiguration":"[Kr] 5s²","energyLevels":[2,8,18,8,2],"densityRT":"2.64 g/cm³","densityLiquidAtMP":"2.375 g/cm³","meltingPointC":"777 °C","boilingPointC":"1 377 °C","molarHeatCapacity":"26.4 J/(mol·K)","molarVolume":"33.7 cm³/mol"}