{"description":"Gadolinium is a magnetic rare-earth metal often used in medical imaging and specialized alloys. Its compounds enhance MRI contrast, improving diagnostic accuracy. Gadolinium also contributes to high-temperature superconductors and neutron-absorbing materials used in reactors. Despite its reactivity, its ability to influence magnetic and nuclear behavior ensures a place in both medicine and engineering.","name":"Gadolinium","symbol":"Gd","atomicNumber":"64","period":"6","group":"— (Lanthanide)","atomicMass":"157.25 g/mol","electronConfiguration":"[Xe] 4f⁷ 5d¹ 6s²","energyLevels":[2,8,18,25,9,2],"densityRT":"7.90 g/cm³","densityLiquidAtMP":"—","meltingPointC":"1 312 °C","boilingPointC":"3 273 °C","molarHeatCapacity":"37.03 J/(mol·K)","molarVolume":"19.90 cm³/mol"}