{"description":"Lutetium is a dense rare-earth metal used in medical imaging, catalysts, and high-performance scintillators. It improves PET scan resolution and supports advanced research into new materials. Lutetium compounds also appear in petroleum refining and certain optical devices. Although expensive due to limited availability, lutetium's precision-focused applications make it significant in science and industry.","name":"Lutetium","symbol":"Lu","atomicNumber":"71","period":"6","group":"3","atomicMass":"174.97 g/mol","electronConfiguration":"[Xe] 4f¹⁴ 5d¹ 6s²","energyLevels":[2,8,18,32,9,2],"densityRT":"9.84 g/cm³","densityLiquidAtMP":"—","meltingPointC":"1 652 °C","boilingPointC":"3 402 °C","molarHeatCapacity":"26.86 J/(mol·K)","molarVolume":"17.78 cm³/mol"}