{"description":"Platinum is a precious metal valued for its stability, catalytic performance, and resistance to corrosion. It is used in jewelry, catalytic converters, medical devices, and chemical production. Platinum’s catalytic abilities help reduce vehicle emissions and support industrial reactions. Its durability and biocompatibility make it important across multiple fields.","name":"Platinum","symbol":"Pt","atomicNumber":"78","period":"6","group":"10","atomicMass":"195.08 g/mol","electronConfiguration":"[Xe] 4f¹⁴ 5d⁹ 6s¹","energyLevels":[2,8,18,32,17,1],"densityRT":"21.45 g/cm³","densityLiquidAtMP":"—","meltingPointC":"1 768 °C","boilingPointC":"3 825 °C","molarHeatCapacity":"25.86 J/(mol·K)","molarVolume":"9.09 cm³/mol"}