{"description":"Samarium is a rare-earth metal used in strong permanent magnets, optical materials, and nuclear reactors. Samarium-cobalt magnets retain performance at high temperatures, making them ideal for aerospace and industrial machinery. Samarium compounds also appear in lasers and radiation-absorbing materials. Its combination of magnetic stability and optical properties keeps samarium valuable across multiple advanced technologies.","name":"Samarium","symbol":"Sm","atomicNumber":"62","period":"6","group":"— (Lanthanide)","atomicMass":"150.36 g/mol","electronConfiguration":"[Xe] 4f⁶ 6s²","energyLevels":[2,8,18,24,8,2],"densityRT":"7.52 g/cm³","densityLiquidAtMP":"—","meltingPointC":"1 072 °C","boilingPointC":"1 794 °C","molarHeatCapacity":"29.54 J/(mol·K)","molarVolume":"19.99 cm³/mol"}