{"description":"Chlorine is a reactive greenish-yellow gas widely used for disinfection, chemical production, and water treatment. Its strong oxidizing properties help eliminate harmful microorganisms. In industry, chlorine is key to manufacturing plastics, solvents, and pharmaceuticals. Although toxic in high concentrations, chlorine compounds such as chlorides are stable and vital to biological function. Careful handling ensures chlorine’s benefits can be used safely and effectively.","name":"Chlorine","symbol":"Cl","atomicNumber":"17","period":"3","group":"17","atomicMass":"35.45 g/mol","electronConfiguration":"[Ne] 3s² 3p⁵","energyLevels":[2,8,7],"densityRT":"0.003214 g/cm³","densityLiquidAtMP":"1.468 g/cm³","meltingPointC":"-101.0 °C","boilingPointC":"-34.0 °C","molarHeatCapacity":"33.9 J/(mol·K)","molarVolume":"22.7 cm³/mol"}