{"description":"Sulfur is a yellow nonmetal known for its role in biological molecules, industrial chemicals, and environmental processes. It appears in proteins, volcanic emissions, and numerous minerals. Industry uses sulfur to produce sulfuric acid, one of the most important chemicals worldwide. Sulfur compounds support fertilizers, batteries, and pharmaceuticals. Although some sulfur odors are unpleasant, the element itself is stable and widely useful. Its presence across natural and industrial systems highlights its broad importance.","name":"Sulfur","symbol":"S","atomicNumber":"16","period":"3","group":"16","atomicMass":"32.06 g/mol","electronConfiguration":"[Ne] 3s² 3p⁴","energyLevels":[2,8,6],"densityRT":"2.07 g/cm³","densityLiquidAtMP":"1.819 g/cm³","meltingPointC":"115.2 °C","boilingPointC":"444.6 °C","molarHeatCapacity":"22.7 J/(mol·K)","molarVolume":"15.5 cm³/mol"}