{"description":"Gold is a highly stable, conductive metal known for its resistance to corrosion and long history in currency and ornamentation. It is used in electronics, dentistry, aerospace, and high-reliability connectors. Gold maintains conductivity over time, making it ideal for precision circuits. Its rarity, beauty, and performance keep it valuable in both technology and culture.","name":"Gold","symbol":"Au","atomicNumber":"79","period":"6","group":"11","atomicMass":"196.97 g/mol","electronConfiguration":"[Xe] 4f¹⁴ 5d¹⁰ 6s¹","energyLevels":[2,8,18,32,18,1],"densityRT":"19.32 g/cm³","densityLiquidAtMP":"—","meltingPointC":"1 064 °C","boilingPointC":"2 970 °C","molarHeatCapacity":"25.42 J/(mol·K)","molarVolume":"10.21 cm³/mol"}