{"description":"Germanium is a metalloid with important applications in electronics, optics, and fiber-optic communication. It forms semiconductors with stable performance across a range of temperatures. Germanium lenses provide clarity in infrared systems, and its compounds are used in catalysts and polymer chemistry. Although less common than silicon, germanium remains significant in specialized high-precision technologies.","name":"Germanium","symbol":"Ge","atomicNumber":"32","period":"4","group":"14","atomicMass":"72.630 g/mol","electronConfiguration":"[Ar] 3d¹⁰ 4s² 4p²","energyLevels":[2,8,18,4],"densityRT":"5.32 g/cm³","densityLiquidAtMP":"5.60 g/cm³","meltingPointC":"938.3 °C","boilingPointC":"2 833 °C","molarHeatCapacity":"23.22 J/(mol·K)","molarVolume":"13.6 cm³/mol"}