{"description":"Niobium is a shiny, ductile metal valued for its ability to strengthen steel alloys while maintaining flexibility. It is widely used in pipelines, aerospace components, and superconducting magnets. Niobium alloys resist heat and corrosion, making them ideal for high-performance engineering. In electronics, niobium plays a role in capacitors and advanced superconducting materials. Although not abundant, its stability and versatility keep it important in modern technology.","name":"Niobium","symbol":"Nb","atomicNumber":"41","period":"5","group":"5","atomicMass":"92.90637 g/mol","electronConfiguration":"[Kr] 4d⁴ 5s¹","energyLevels":[2,8,18,12,1],"densityRT":"8.57 g/cm³","densityLiquidAtMP":"—","meltingPointC":"2 477 °C","boilingPointC":"4 744 °C","molarHeatCapacity":"24.6 J/(mol·K)","molarVolume":"10.84 cm³/mol"}