{"description":"Vanadium is a hard, silvery metal primarily used to strengthen steel alloys. Even small amounts greatly improve durability, making vanadium steel important for tools, construction materials, and aerospace components. It also plays a role in batteries, especially vanadium redox flow systems for large-scale energy storage. In chemistry, vanadium compounds act as catalysts in various industrial processes. Its versatility and enhancing effect on materials make vanadium a key component in modern engineering.","name":"Vanadium","symbol":"V","atomicNumber":"23","period":"4","group":"5","atomicMass":"50.942 g/mol","electronConfiguration":"[Ar] 3d³ 4s²","energyLevels":[2,8,11,2],"densityRT":"6.11 g/cm³","densityLiquidAtMP":"5.50 g/cm³","meltingPointC":"1 910 °C","boilingPointC":"3 407 °C","molarHeatCapacity":"24.9 J/(mol·K)","molarVolume":"8.9 cm³/mol"}