{"description":"Neodymium is a rare-earth metal essential for high-strength permanent magnets. These magnets power electric vehicles, wind turbines, and advanced electronics. Neodymium is also used in lasers, glass coloring, and audio equipment. Although it oxidizes easily, its magnetic performance makes it indispensable for modern technologies focused on efficiency and miniaturization.","name":"Neodymium","symbol":"Nd","atomicNumber":"60","period":"6","group":"— (Lanthanide)","atomicMass":"144.24 g/mol","electronConfiguration":"[Xe] 4f⁴ 6s²","energyLevels":[2,8,18,22,8,2],"densityRT":"7.01 g/cm³","densityLiquidAtMP":"—","meltingPointC":"1 021 °C","boilingPointC":"3 074 °C","molarHeatCapacity":"27.45 J/(mol·K)","molarVolume":"20.6 cm³/mol"}