{"description":"Ruthenium is a rare, hard metal used primarily in electronics, catalysts, and wear-resistant coatings. It strengthens platinum and palladium alloys and improves durability in electrical contacts. Ruthenium-based catalysts support chemical production and fuel-cell technologies. Its unique reactivity and stability make it valuable in advanced materials and electronics where reliability is essential.","name":"Ruthenium","symbol":"Ru","atomicNumber":"44","period":"5","group":"8","atomicMass":"101.07 g/mol","electronConfiguration":"[Kr] 4d⁷ 5s¹","energyLevels":[2,8,18,15,1],"densityRT":"12.37 g/cm³","densityLiquidAtMP":"—","meltingPointC":"2 334 °C","boilingPointC":"4 150 °C","molarHeatCapacity":"24.06 J/(mol·K)","molarVolume":"8.2 cm³/mol"}