{"description":"Tantalum is a hard, corrosion-resistant metal widely used in electronics, medical implants, and chemical equipment. It forms stable capacitors with high performance and long lifespans. Tantalum’s resistance to corrosion and biocompatibility make it ideal for surgical tools and implants. Although rare, tantalum remains a key component in advanced electronic and medical technologies.","name":"Tantalum","symbol":"Ta","atomicNumber":"73","period":"6","group":"5","atomicMass":"180.95 g/mol","electronConfiguration":"[Xe] 4f¹⁴ 5d³ 6s²","energyLevels":[2,8,18,32,11,2],"densityRT":"16.69 g/cm³","densityLiquidAtMP":"—","meltingPointC":"3 017 °C","boilingPointC":"5 458 °C","molarHeatCapacity":"25.36 J/(mol·K)","molarVolume":"10.90 cm³/mol"}