{"description":"Xenon is a heavy noble gas known for its bright blue glow in ionized form. It is used in high-intensity lamps, lasers, and medical imaging. Xenon provides excellent lighting for projectors, headlights, and specialized optical equipment. Its stability and density make it useful in anesthesia and scientific research. Although rare, xenon’s unique properties give it a role in cutting-edge technologies.","name":"Xenon","symbol":"Xe","atomicNumber":"54","period":"5","group":"18","atomicMass":"131.29 g/mol","electronConfiguration":"[Kr] 4d¹⁰ 5s² 5p⁶","energyLevels":[2,8,18,18,8],"densityRT":"0.005887 g/cm³","densityLiquidAtMP":"2.94 g/cm³","meltingPointC":"–111.8 °C","boilingPointC":"–108.1 °C","molarHeatCapacity":"20.786 J/(mol·K)","molarVolume":"37.3 cm³/mol"}