{"description":"Erbium is a rare-earth metal known for its role in fiber-optic communication. Its ions amplify light signals in long-distance data cables, enabling high-speed internet transmission. Erbium also provides pink coloration in glass and ceramics. In lasers, erbium supports precise medical and industrial procedures. Its optical behavior makes it essential to modern telecommunications.","name":"Erbium","symbol":"Er","atomicNumber":"68","period":"6","group":"— (Lanthanide)","atomicMass":"167.26 g/mol","electronConfiguration":"[Xe] 4f¹² 6s²","energyLevels":[2,8,18,30,8,2],"densityRT":"9.07 g/cm³","densityLiquidAtMP":"—","meltingPointC":"1 529 °C","boilingPointC":"2 868 °C","molarHeatCapacity":"28.12 J/(mol·K)","molarVolume":"18.46 cm³/mol"}