{"description":"Praseodymium is a rare-earth metal known for its strong magnetic properties and bright green salts. It is used in magnets, aircraft engines, and glass coloration. Praseodymium improves alloy strength and supports high-performance motors. Its unique combination of magnetic and optical traits makes it valuable in advanced engineering and scientific research.","name":"Praseodymium","symbol":"Pr","atomicNumber":"59","period":"6","group":"— (Lanthanide)","atomicMass":"140.91 g/mol","electronConfiguration":"[Xe] 4f³ 6s²","energyLevels":[2,8,18,21,8,2],"densityRT":"6.77 g/cm³","densityLiquidAtMP":"—","meltingPointC":"931 °C","boilingPointC":"3 520 °C","molarHeatCapacity":"27.20 J/(mol·K)","molarVolume":"20.8 cm³/mol"}