{"description":"Zinc is a reactive metal commonly used for galvanizing steel to prevent corrosion. Its compounds appear in batteries, pigments, fertilizers, and pharmaceuticals. In biology, zinc is vital for enzyme activity and immune function. Although zinc is not as strong as some metals, its protective qualities and chemical versatility make it essential across many industries. Its affordability and wide availability support its continued use in manufacturing.","name":"Zinc","symbol":"Zn","atomicNumber":"30","period":"4","group":"12","atomicMass":"65.38 g/mol","electronConfiguration":"[Ar] 3d¹⁰ 4s²","energyLevels":[2,8,18,2],"densityRT":"7.14 g/cm³","densityLiquidAtMP":"6.57 g/cm³","meltingPointC":"419.5 °C","boilingPointC":"907 °C","molarHeatCapacity":"25.5 J/(mol·K)","molarVolume":"9.2 cm³/mol"}