{"description":"Cobalt is a tough, lustrous metal known for its role in strong alloys, magnets, and rechargeable batteries. It enhances heat resistance in industrial components and supports long-lasting battery performance. Cobalt compounds produce vibrant blue pigments used in ceramics and glass. In biology, cobalt is part of vitamin B12, essential for cellular function. Though extraction must be managed responsibly, cobalt remains vital for modern technologies.","name":"Cobalt","symbol":"Co","atomicNumber":"27","period":"4","group":"9","atomicMass":"58.933 g/mol","electronConfiguration":"[Ar] 3d⁷ 4s²","energyLevels":[2,8,15,2],"densityRT":"8.90 g/cm³","densityLiquidAtMP":"7.75 g/cm³","meltingPointC":"1 495 °C","boilingPointC":"2 927 °C","molarHeatCapacity":"24.8 J/(mol·K)","molarVolume":"6.6 cm³/mol"}